# CHO example

15 atoms
2 atom types

-50 50 xlo xhi
-50 50 ylo yhi
-50 50 zlo zhi

Masses

1 1.0080
2 12.0107

Atoms

1	2	0	-0.691	-0.281	0.119
2	2	0	0.696	-0.217	-0.071
3	2	0	1.324	1.025	-0.233
4	2	0	0.566	2.203	-0.204
5	2	0	-0.821	2.139	-0.014
6	2	0	-1.45	0.897	0.148
7	1	0	-1.171	-1.23	0.243
8	1	0	1.275	-1.117	-0.093
9	1	0	2.383	1.074	-0.378
10	1	0	-1.401	3.038	0.008
11	1	0	-2.509	0.848	0.293
12	2	0	1.256	3.568	-0.382
13	1	0	0.677	4.467	-0.36
14	2	0	2.597	3.63	-0.566
15	1	0	3.656	3.679	-0.711


