# CHO example

1050 atoms
2 atom types

0 34.431 xlo xhi
0 34.431 ylo yhi
0 34.431 zlo zhi

Masses

1 1.0080
2 12.0107

Atoms

1 2 0 3.908 15.622 4.477
2 2 0 3.114 15.917 5.75
3 2 0 3.506 17.262 6.378
4 2 0 3.013 18.46 5.565
5 2 0 1.504 18.392 5.341
6 2 0 1.098 17.07 4.693
7 2 0 1.598 15.878 5.509
8 1 0 3.726 16.364 3.693
9 1 0 3.64 14.641 4.069
10 1 0 4.984 15.617 4.681
11 1 0 3.357 15.128 6.474
12 1 0 4.595 17.311 6.506
13 1 0 3.069 17.32 7.385
14 1 0 3.525 18.488 4.593
15 1 0 3.281 19.392 6.078
16 1 0 1.168 19.238 4.73
17 1 0 0.995 18.484 6.312
18 1 0 1.506 17.024 3.674
19 1 0 0.008 17.017 4.587
20 1 0 1.323 14.937 5.016
21 1 0 1.087 15.882 6.483
22 2 0 18.773 13.649 2.07
23 2 0 17.685 13.878 3.12
24 2 0 16.906 15.177 2.872
25 2 0 15.981 15.088 1.657
26 2 0 15.025 13.903 1.776
27 2 0 15.785 12.597 1.998
28 2 0 16.711 12.696 3.211
29 1 0 18.361 13.543 1.062
30 1 0 19.341 12.738 2.289
31 1 0 19.479 14.486 2.05
32 1 0 18.188 13.972 4.092
33 1 0 17.604 16.015 2.758
34 1 0 16.296 15.396 3.76
35 1 0 16.577 14.985 0.74
36 1 0 15.417 16.023 1.55
37 1 0 14.39 13.831 0.885
38 1 0 14.351 14.073 2.629
39 1 0 16.37 12.359 1.1
40 1 0 15.083 11.766 2.133
41 1 0 17.27 11.76 3.341
42 1 0 16.093 12.818 4.113
43 2 0 10.676 15.1 16.485
44 2 0 11.452 14.89 15.184
45 2 0 12.634 15.86 15.052
46 2 0 13.779 15.531 16.01
47 2 0 14.247 14.087 15.837
48 2 0 13.087 13.105 15.991
49 2 0 11.945 13.444 15.032
50 1 0 11.293 14.917 17.37
51 1 0 9.815 14.425 16.54
52 1 0 10.301 16.127 16.553
53 1 0 10.758 15.094 14.357
54 1 0 12.291 16.89 15.208
55 1 0 13.016 15.81 14.022
56 1 0 13.454 15.685 17.048
57 1 0 14.613 16.224 15.846
58 1 0 15.045 13.854 16.552
59 1 0 14.681 13.971 14.832
60 1 0 12.725 13.129 17.028
61 1 0 13.431 12.079 15.812
62 1 0 11.109 12.747 15.175
63 1 0 12.3 13.3 14.001
64 2 0 2.106 22.955 11.359
65 2 0 2.93 21.99 10.506
66 2 0 4.243 21.588 11.191
67 2 0 4.027 20.653 12.381
68 2 0 3.234 19.413 11.972
69 2 0 1.911 19.794 11.312
70 2 0 2.135 20.733 10.126
71 1 0 1.804 22.512 12.313
72 1 0 1.194 23.259 10.835
73 1 0 2.679 23.862 11.585
74 1 0 3.185 22.516 9.577
75 1 0 4.789 22.486 11.507
76 1 0 4.881 21.076 10.456
77 1 0 3.49 21.182 13.18
78 1 0 4.996 20.362 12.806
79 1 0 3.058 18.767 12.841
80 1 0 3.833 18.825 11.26
81 1 0 1.259 20.276 12.053
82 1 0 1.379 18.894 10.978
83 1 0 1.174 21.019 9.68
84 1 0 2.691 20.187 9.349
85 2 0 8.451 26.465 25.629
86 2 0 8.211 25.759 24.294
87 2 0 8.914 24.397 24.226
88 2 0 8.253 23.345 25.118
89 2 0 6.768 23.2 24.792
90 2 0 6.046 24.543 24.88
91 2 0 6.716 25.59 23.99
92 1 0 8.052 25.899 26.476
93 1 0 7.973 27.451 25.64
94 1 0 9.522 26.611 25.807
95 1 0 8.641 26.396 23.509
96 1 0 9.973 24.509 24.491
97 1 0 8.887 24.039 23.186
98 1 0 8.368 23.624 26.174
99 1 0 8.764 22.382 25
100 1 0 6.298 22.468 25.46
101 1 0 6.663 22.805 23.77
102 1 0 6.043 24.887 25.924
103 1 0 4.994 24.43 24.594
104 1 0 6.204 26.556 24.086
105 1 0 6.604 25.279 22.941
106 2 0 3.932 9.872 21.636
107 2 0 3.876 9.134 22.974
108 2 0 4.956 8.049 23.082
109 2 0 6.362 8.629 23.245
110 2 0 6.433 9.578 24.439
111 2 0 5.381 10.68 24.335
112 2 0 3.979 10.093 24.169
113 1 0 4.88 10.401 21.494
114 1 0 3.129 10.614 21.565
115 1 0 3.818 9.174 20.8
116 1 0 2.898 8.637 23.029
117 1 0 4.915 7.392 22.204
118 1 0 4.735 7.419 23.956
119 1 0 6.652 9.169 22.333
120 1 0 7.088 7.815 23.361
121 1 0 7.437 10.012 24.525
122 1 0 6.259 9.004 25.362
123 1 0 5.618 11.331 23.482
124 1 0 5.412 11.321 25.225
125 1 0 3.239 10.897 24.067
126 1 0 3.72 9.542 25.085
127 2 0 9.579 5.156 20.459
128 2 0 9.535 6.05 19.22
129 2 0 8.219 5.902 18.445
130 2 0 7.03 6.53 19.174
131 2 0 7.297 7.997 19.503
132 2 0 8.591 8.161 20.297
133 2 0 9.774 7.527 19.564
134 1 0 8.796 5.408 21.181
135 1 0 10.541 5.248 20.974
136 1 0 9.446 4.103 20.186
137 1 0 10.35 5.726 18.558
138 1 0 8.023 4.842 18.241
139 1 0 8.329 6.394 17.468
140 1 0 6.827 5.979 20.102
141 1 0 6.126 6.435 18.56
142 1 0 6.451 8.427 20.054
143 1 0 7.38 8.564 18.563
144 1 0 8.472 7.699 21.286
145 1 0 8.793 9.224 20.48
146 1 0 10.69 7.629 20.16
147 1 0 9.944 8.082 18.63
148 2 0 0.651 31.017 8.816
149 2 0 1.177 30.618 7.437
150 2 0 1.981 31.746 6.775
151 2 0 3.34 31.971 7.439
152 2 0 4.156 30.681 7.477
153 2 0 3.381 29.553 8.155
154 2 0 2.022 29.337 7.489
155 1 0 1.458 31.24 9.52
156 1 0 0.048 30.213 9.252
157 1 0 0.019 31.91 8.749
158 1 0 0.303 30.415 6.803
159 1 0 1.396 32.674 6.781
160 1 0 2.147 31.487 5.719
161 1 0 3.199 32.343 8.463
162 1 0 3.89 32.754 6.903
163 1 0 5.115 30.847 7.984
164 1 0 4.395 30.379 6.445
165 1 0 3.243 29.795 9.218
166 1 0 3.961 28.622 8.128
167 1 0 1.467 28.544 8.005
168 1 0 2.189 28.984 6.461
169 2 0 12.228 29.172 24.821
170 2 0 12.901 29.603 26.125
171 2 0 12.716 31.101 26.404
172 2 0 11.284 31.455 26.804
173 2 0 10.824 30.625 28.001
174 2 0 10.977 29.13 27.731
175 2 0 12.41 28.785 27.327
176 1 0 11.145 29.324 24.843
177 1 0 12.406 28.11 24.622
178 1 0 12.622 29.742 23.972
179 1 0 13.978 29.415 26.011
180 1 0 13.022 31.685 25.526
181 1 0 13.39 31.392 27.223
182 1 0 10.605 31.281 25.958
183 1 0 11.216 32.525 27.034
184 1 0 9.785 30.865 28.257
185 1 0 11.433 30.894 28.877
186 1 0 10.281 28.831 26.935
187 1 0 10.691 28.552 28.618
188 1 0 12.497 27.713 27.109
189 1 0 13.072 28.985 28.182
190 2 0 14.443 16.663 28.281
191 2 0 13.003 16.413 28.731
192 2 0 12.376 17.655 29.38
193 2 0 12.069 18.759 28.368
194 2 0 11.185 18.241 27.236
195 2 0 11.806 17.02 26.561
196 2 0 12.114 15.922 27.58
197 1 0 14.509 17.445 27.518
198 1 0 14.883 15.753 27.857
199 1 0 15.067 16.974 29.125
200 1 0 13.034 15.62 29.491
201 1 0 13.035 18.036 30.171
202 1 0 11.437 17.359 29.87
203 1 0 13.005 19.153 27.948
204 1 0 11.585 19.603 28.874
205 1 0 10.999 19.033 26.501
206 1 0 10.204 17.96 27.649
207 1 0 12.728 17.319 26.044
208 1 0 11.135 16.63 25.787
209 1 0 12.585 15.064 27.085
210 1 0 11.165 15.559 28
211 2 0 1.605 18.964 27.156
212 2 0 0.998 18.25 25.947
213 2 0 0.781 19.202 24.763
214 2 0 2.091 19.625 24.097
215 2 0 2.908 18.409 23.665
216 2 0 3.156 17.463 24.838
217 2 0 1.843 17.049 25.501
218 1 0 2.594 19.378 26.941
219 1 0 1.714 18.275 28.001
220 1 0 0.966 19.793 27.481
221 1 0 0.014 17.871 26.255
222 1 0 0.219 20.086 25.092
223 1 0 0.156 18.695 24.014
224 1 0 2.684 20.235 24.791
225 1 0 1.878 20.267 23.233
226 1 0 3.859 18.725 23.219
227 1 0 2.357 17.869 22.881
228 1 0 3.807 17.956 25.572
229 1 0 3.699 16.572 24.5
230 1 0 2.039 16.392 26.358
231 1 0 1.259 16.457 24.781
232 2 0 5.947 20.985 29.041
233 2 0 5.447 21.089 30.482
234 2 0 4.177 21.943 30.593
235 2 0 2.944 21.248 30.015
236 2 0 2.729 19.88 30.658
237 2 0 3.975 19.006 30.534
238 2 0 5.204 19.71 31.111
239 1 0 5.221 20.498 28.383
240 1 0 6.875 20.404 28.99
241 1 0 6.152 21.978 28.626
242 1 0 6.236 21.586 31.063
243 1 0 4.334 22.911 30.101
244 1 0 3.99 22.158 31.655
245 1 0 3.059 21.125 28.929
246 1 0 2.06 21.88 30.158
247 1 0 1.862 19.378 30.212
248 1 0 2.496 20.02 31.725
249 1 0 4.145 18.762 29.476
250 1 0 3.821 18.048 31.046
251 1 0 6.095 19.081 30.988
252 1 0 5.057 19.838 32.193
253 2 0 13.721 26.538 33.507
254 2 0 13.58 26.238 32.014
255 2 0 13.158 24.786 31.753
256 2 0 11.704 24.514 32.139
257 2 0 10.756 25.483 31.436
258 2 0 11.145 26.935 31.705
259 2 0 12.602 27.197 31.321
260 1 0 12.776 26.417 34.045
261 1 0 14.06 27.567 33.668
262 1 0 14.452 25.868 33.972
263 1 0 14.569 26.385 31.559
264 1 0 13.828 24.101 32.288
265 1 0 13.281 24.571 30.681
266 1 0 11.581 24.61 33.227
267 1 0 11.441 23.478 31.893
268 1 0 9.719 25.3 31.746
269 1 0 10.796 25.298 30.351
270 1 0 10.992 27.161 32.769
271 1 0 10.486 27.615 31.152
272 1 0 12.874 28.236 31.547
273 1 0 12.703 27.076 30.233
274 2 0 16.117 32.38 24.423
275 2 0 15.965 30.994 23.795
276 2 0 14.958 30.991 22.637
277 2 0 15.485 31.706 21.393
278 2 0 16.821 31.119 20.943
279 2 0 17.845 31.138 22.076
280 2 0 17.309 30.425 23.318
281 1 0 16.5 33.118 23.712
282 1 0 16.81 32.351 25.271
283 1 0 15.153 32.749 24.791
284 1 0 15.578 30.325 24.576
285 1 0 14.012 31.442 22.964
286 1 0 14.732 29.948 22.371
287 1 0 15.609 32.777 21.602
288 1 0 14.747 31.637 20.584
289 1 0 17.204 31.662 20.07
290 1 0 16.664 30.078 20.622
291 1 0 18.097 32.179 22.322
292 1 0 18.781 30.667 21.752
293 1 0 18.044 30.472 24.131
294 1 0 17.174 29.36 23.078
295 2 0 8.273 30.346 11.912
296 2 0 7.647 30.294 13.306
297 2 0 6.529 31.331 13.477
298 2 0 5.267 30.975 12.689
299 2 0 4.765 29.579 13.052
300 2 0 5.859 28.529 12.864
301 2 0 7.117 28.895 13.651
302 1 0 7.551 30.115 11.124
303 1 0 9.094 29.625 11.826
304 1 0 8.679 31.342 11.703
305 1 0 8.44 30.537 14.026
306 1 0 6.892 32.324 13.184
307 1 0 6.268 31.395 14.543
308 1 0 5.475 31.018 11.611
309 1 0 4.487 31.722 12.879
310 1 0 3.88 29.323 12.458
311 1 0 4.447 29.577 14.106
312 1 0 6.098 28.441 11.795
313 1 0 5.497 27.543 13.178
314 1 0 7.902 28.147 13.483
315 1 0 6.88 28.864 14.724
316 2 0 15.983 23.101 25.622
317 2 0 15.037 22.898 24.437
318 2 0 15.124 24.049 23.425
319 2 0 16.429 24.04 22.629
320 2 0 16.643 22.696 21.935
321 2 0 16.586 21.541 22.932
322 2 0 15.28 21.56 23.726
323 1 0 17.033 23.13 25.315
324 1 0 15.876 22.289 26.35
325 1 0 15.766 24.043 26.138
326 1 0 14.015 22.883 24.838
327 1 0 14.999 25.01 23.94
328 1 0 14.284 23.96 22.72
329 1 0 17.277 24.243 23.298
330 1 0 16.422 24.852 21.893
331 1 0 17.598 22.691 21.395
332 1 0 15.855 22.555 21.18
333 1 0 17.442 21.609 23.617
334 1 0 16.69 20.582 22.41
335 1 0 15.267 20.741 24.457
336 1 0 14.447 21.374 23.033
337 2 0 14.895 12.258 26.356
338 2 0 13.78 11.337 25.86
339 2 0 14.002 9.879 26.285
340 2 0 13.778 9.659 27.782
341 2 0 12.392 10.137 28.208
342 2 0 12.163 11.595 27.816
343 2 0 12.393 11.807 26.32
344 1 0 14.954 12.288 27.448
345 1 0 14.737 13.285 26.008
346 1 0 15.871 11.926 25.984
347 1 0 13.797 11.37 24.762
348 1 0 15.012 9.556 26
349 1 0 13.301 9.24 25.73
350 1 0 14.543 10.198 28.358
351 1 0 13.906 8.597 28.025
352 1 0 12.256 10.004 29.289
353 1 0 11.632 9.511 27.717
354 1 0 12.84 12.238 28.394
355 1 0 11.146 11.906 28.083
356 1 0 12.252 12.864 26.059
357 1 0 11.629 11.244 25.765
358 2 0 14.1 18.998 18.596
359 2 0 13.479 19.237 19.972
360 2 0 12.167 20.029 19.886
361 2 0 11.018 19.208 19.3
362 2 0 10.812 17.912 20.081
363 2 0 12.102 17.097 20.156
364 2 0 13.247 17.927 20.738
365 1 0 13.452 18.401 17.946
366 1 0 15.054 18.466 18.685
367 1 0 14.293 19.947 18.084
368 1 0 14.194 19.839 20.55
369 1 0 12.321 20.942 19.297
370 1 0 11.884 20.353 20.898
371 1 0 11.227 18.969 18.248
372 1 0 10.097 19.803 19.3
373 1 0 10.008 17.316 19.632
374 1 0 10.487 18.159 21.103
375 1 0 12.369 16.745 19.15
376 1 0 11.95 16.197 20.763
377 1 0 14.172 17.338 20.759
378 1 0 13.006 18.169 21.783
379 2 0 7.761 30.778 24.911
380 2 0 6.244 30.835 25.096
381 2 0 5.779 32.186 25.657
382 2 0 5.889 33.319 24.637
383 2 0 5.131 32.982 23.354
384 2 0 5.599 31.652 22.767
385 2 0 5.491 30.525 23.795
386 1 0 8.119 31.521 24.193
387 1 0 8.073 29.793 24.547
388 1 0 8.277 30.963 25.86
389 1 0 5.977 30.06 25.828
390 1 0 6.352 32.431 26.561
391 1 0 4.728 32.095 25.967
392 1 0 6.944 33.506 24.397
393 1 0 5.505 34.25 25.072
394 1 0 5.244 33.787 22.618
395 1 0 4.057 32.913 23.582
396 1 0 6.639 31.749 22.426
397 1 0 5.009 31.4 21.876
398 1 0 5.856 29.583 23.367
399 1 0 4.428 30.37 24.032
400 2 0 27.396 1.01 13.593
401 2 0 27.859 2.346 13.011
402 2 0 26.711 3.115 12.343
403 2 0 25.714 3.684 13.353
404 2 0 26.416 4.56 14.389
405 2 0 27.546 3.802 15.083
406 2 0 28.536 3.233 14.066
407 1 0 26.645 1.137 14.379
408 1 0 28.238 0.461 14.029
409 1 0 26.952 0.378 12.816
410 1 0 28.605 2.121 12.237
411 1 0 26.196 2.466 11.624
412 1 0 27.136 3.948 11.765
413 1 0 25.191 2.864 13.864
414 1 0 24.941 4.259 12.829
415 1 0 25.696 4.935 15.126
416 1 0 26.836 5.443 13.883
417 1 0 27.121 2.989 15.687
418 1 0 28.071 4.461 15.785
419 1 0 29.325 2.668 14.578
420 1 0 29.032 4.071 13.555
421 2 0 11.767 1.733 26.342
422 2 0 11.875 2.657 25.129
423 2 0 11.55 4.115 25.482
424 2 0 12.642 4.778 26.323
425 2 0 14.002 4.682 25.636
426 2 0 14.355 3.235 25.3
427 2 0 13.256 2.579 24.463
428 1 0 12.478 1.998 27.131
429 1 0 11.965 0.693 26.06
430 1 0 10.763 1.776 26.778
431 1 0 11.131 2.318 24.396
432 1 0 10.585 4.167 26.002
433 1 0 11.434 4.685 24.549
434 1 0 12.698 4.297 27.309
435 1 0 12.382 5.827 26.51
436 1 0 14.782 5.132 26.263
437 1 0 13.974 5.268 24.704
438 1 0 14.503 2.671 26.231
439 1 0 15.309 3.19 24.762
440 1 0 13.511 1.532 24.254
441 1 0 13.207 3.089 23.49
442 2 0 24.16 30.063 31.119
443 2 0 25.187 31.141 30.774
444 2 0 25.018 32.399 31.638
445 2 0 25.449 32.183 33.088
446 2 0 26.885 31.668 33.166
447 2 0 27.066 30.401 32.333
448 2 0 26.628 30.624 30.885
449 1 0 24.256 29.713 32.151
450 1 0 24.274 29.191 30.465
451 1 0 23.139 30.442 30.995
452 1 0 25.016 31.429 29.728
453 1 0 23.976 32.742 31.598
454 1 0 25.629 33.206 31.208
455 1 0 24.778 31.463 33.575
456 1 0 25.35 33.12 33.65
457 1 0 27.172 31.486 34.209
458 1 0 27.564 32.446 32.785
459 1 0 26.482 29.585 32.779
460 1 0 28.113 30.075 32.358
461 1 0 26.738 29.698 30.307
462 1 0 27.303 31.362 30.426
463 2 0 13.289 11.385 19.466
464 2 0 13.64 11.112 20.929
465 2 0 14.635 12.139 21.486
466 2 0 14.008 13.517 21.695
467 2 0 12.77 13.431 22.586
468 2 0 11.756 12.432 22.032
469 2 0 12.393 11.058 21.822
470 1 0 12.801 12.354 19.329
471 1 0 12.609 10.618 19.078
472 1 0 14.189 11.38 18.841
473 1 0 14.121 10.125 20.968
474 1 0 15.506 12.214 20.822
475 1 0 15.01 11.775 22.454
476 1 0 13.729 13.952 20.726
477 1 0 14.746 14.199 22.134
478 1 0 12.31 14.42 22.701
479 1 0 13.076 13.108 23.593
480 1 0 11.356 12.809 21.081
481 1 0 10.898 12.345 22.71
482 1 0 11.66 10.36 21.398
483 1 0 12.68 10.652 22.803
484 2 0 16.137 25.522 29.26
485 2 0 17.155 24.452 29.656
486 2 0 18.57 24.79 29.165
487 2 0 19.202 25.948 29.937
488 2 0 19.206 25.674 31.439
489 2 0 17.801 25.361 31.95
490 2 0 17.174 24.205 31.17
491 1 0 16.365 26.497 29.702
492 1 0 15.129 25.242 29.585
493 1 0 16.112 25.654 28.172
494 1 0 16.847 23.517 29.169
495 1 0 18.549 25.014 28.091
496 1 0 19.205 23.901 29.287
497 1 0 18.65 26.876 29.738
498 1 0 20.225 26.119 29.578
499 1 0 19.632 26.525 31.984
500 1 0 19.86 24.812 31.643
501 1 0 17.173 26.258 31.86
502 1 0 17.831 25.116 33.019
503 1 0 16.156 24.011 31.53
504 1 0 17.755 23.293 31.37
505 2 0 16.003 15.341 32.171
506 2 0 15.917 14.224 33.212
507 2 0 14.684 13.334 33.004
508 2 0 14.803 12.437 31.772
509 2 0 16.073 11.59 31.826
510 2 0 17.314 12.462 32.006
511 2 0 17.185 13.359 33.237
512 1 0 16.102 14.953 31.153
513 1 0 16.868 15.986 32.362
514 1 0 15.106 15.969 32.197
515 1 0 15.821 14.704 34.195
516 1 0 13.782 13.955 32.937
517 1 0 14.559 12.695 33.89
518 1 0 14.814 13.051 30.861
519 1 0 13.919 11.792 31.694
520 1 0 16.163 10.975 30.922
521 1 0 16.001 10.892 32.674
522 1 0 17.46 13.077 31.108
523 1 0 18.21 11.835 32.095
524 1 0 18.071 13.998 33.337
525 1 0 17.157 12.721 34.133
526 2 0 19.586 8.371 17.551
527 2 0 18.179 8.698 18.052
528 2 0 17.128 7.723 17.502
529 2 0 17.232 6.33 18.123
530 2 0 17.156 6.398 19.647
531 2 0 18.212 7.345 20.214
532 2 0 18.104 8.734 19.584
533 1 0 19.922 7.382 17.873
534 1 0 20.313 9.102 17.923
535 1 0 19.625 8.39 16.456
536 1 0 17.928 9.702 17.682
537 1 0 17.213 7.66 16.409
538 1 0 16.128 8.127 17.715
539 1 0 18.179 5.858 17.827
540 1 0 16.435 5.687 17.73
541 1 0 17.264 5.397 20.082
542 1 0 16.158 6.761 19.939
543 1 0 19.211 6.927 20.03
544 1 0 18.11 7.421 21.303
545 1 0 18.887 9.393 19.981
546 1 0 17.142 9.177 19.879
547 2 0 30.357 22.032 20.057
548 2 0 30.397 23.537 20.324
549 2 0 30.523 24.351 19.029
550 2 0 29.241 24.34 18.197
551 2 0 28.045 24.819 19.018
552 2 0 27.889 24.002 20.299
553 2 0 29.176 24.015 21.123
554 1 0 29.492 21.74 19.454
555 1 0 30.307 21.47 20.996
556 1 0 31.256 21.707 19.521
557 1 0 31.291 23.735 20.931
558 1 0 31.366 23.978 18.435
559 1 0 30.761 25.392 19.291
560 1 0 29.044 23.325 17.826
561 1 0 29.369 24.969 17.308
562 1 0 27.127 24.775 18.42
563 1 0 28.196 25.876 19.285
564 1 0 27.619 22.969 20.041
565 1 0 27.058 24.393 20.9
566 1 0 29.057 23.401 22.025
567 1 0 29.362 25.043 21.466
568 2 0 25.488 10.694 16.136
569 2 0 24.49 11.533 15.337
570 2 0 23.907 12.685 16.168
571 2 0 24.922 13.797 16.431
572 2 0 25.514 14.324 15.125
573 2 0 26.123 13.194 14.297
574 2 0 25.103 12.084 14.042
575 1 0 26.356 11.278 16.459
576 1 0 25.861 9.856 15.537
577 1 0 25.019 10.28 17.035
578 1 0 23.66 10.87 15.058
579 1 0 23.512 12.298 17.116
580 1 0 23.052 13.113 15.624
581 1 0 25.731 13.422 17.072
582 1 0 24.445 14.612 16.989
583 1 0 26.264 15.098 15.329
584 1 0 24.717 14.806 14.54
585 1 0 26.996 12.787 14.823
586 1 0 26.497 13.582 13.341
587 1 0 25.563 11.268 13.471
588 1 0 24.295 12.489 13.416
589 2 0 5.033 3.303 28.838
590 2 0 4.711 3.282 27.343
591 2 0 4.744 4.686 26.724
592 2 0 6.161 5.246 26.604
593 2 0 7.066 4.294 25.825
594 2 0 7.066 2.898 26.442
595 2 0 5.645 2.347 26.563
596 1 0 6.041 3.678 29.039
597 1 0 4.966 2.297 29.266
598 1 0 4.33 3.945 29.38
599 1 0 3.688 2.895 27.238
600 1 0 4.114 5.367 27.31
601 1 0 4.301 4.638 25.719
602 1 0 6.584 5.413 27.604
603 1 0 6.133 6.229 26.118
604 1 0 8.088 4.691 25.774
605 1 0 6.704 4.227 24.788
606 1 0 7.537 2.938 27.433
607 1 0 7.679 2.215 25.841
608 1 0 5.659 1.356 27.033
609 1 0 5.237 2.207 25.551
610 2 0 19.426 20.726 30.826
611 2 0 19.965 21.129 32.199
612 2 0 20.078 19.93 33.15
613 2 0 21.215 18.98 32.771
614 2 0 22.547 19.722 32.681
615 2 0 22.46 20.904 31.718
616 2 0 21.318 21.846 32.101
617 1 0 20.084 20.019 30.312
618 1 0 19.316 21.602 30.177
619 1 0 18.442 20.252 30.916
620 1 0 19.244 21.834 32.635
621 1 0 19.125 19.387 33.183
622 1 0 20.261 20.304 34.168
623 1 0 20.998 18.503 31.806
624 1 0 21.281 18.167 33.504
625 1 0 23.348 19.037 32.376
626 1 0 22.816 20.095 33.681
627 1 0 22.31 20.531 30.696
628 1 0 23.408 21.455 31.705
629 1 0 21.251 22.674 31.384
630 1 0 21.549 22.295 33.078
631 2 0 10.959 17.15 7.582
632 2 0 11.004 18.517 6.898
633 2 0 9.778 19.375 7.239
634 2 0 9.795 19.884 8.681
635 2 0 11.085 20.645 8.982
636 2 0 12.316 19.796 8.672
637 2 0 12.288 19.288 7.231
638 1 0 10.965 17.231 8.673
639 1 0 11.822 16.54 7.293
640 1 0 10.053 16.602 7.299
641 1 0 10.993 18.337 5.814
642 1 0 8.859 18.807 7.048
643 1 0 9.756 20.242 6.564
644 1 0 9.701 19.039 9.377
645 1 0 8.924 20.525 8.86
646 1 0 11.1 20.976 10.028
647 1 0 11.114 21.555 8.364
648 1 0 12.357 18.947 9.368
649 1 0 13.231 20.376 8.845
650 1 0 13.164 18.657 7.032
651 1 0 12.365 20.152 6.554
652 2 0 10.719 7.297 3.043
653 2 0 10.401 8.788 2.927
654 2 0 9.286 9.218 3.89
655 2 0 9.739 9.234 5.35
656 2 0 10.975 10.111 5.535
657 2 0 12.106 9.68 4.603
658 2 0 11.643 9.663 3.145
659 1 0 11.084 7.026 4.038
660 1 0 11.488 7.005 2.32
661 1 0 9.827 6.691 2.845
662 1 0 10.044 8.965 1.903
663 1 0 8.414 8.562 3.769
664 1 0 8.956 10.231 3.616
665 1 0 9.964 8.211 5.683
666 1 0 8.921 9.588 5.99
667 1 0 11.31 10.087 6.58
668 1 0 10.709 11.155 5.315
669 1 0 12.459 8.682 4.895
670 1 0 12.966 10.352 4.712
671 1 0 12.457 9.325 2.492
672 1 0 11.405 10.693 2.842
673 2 0 4.493 15.053 15.462
674 2 0 3.006 14.702 15.388
675 2 0 2.755 13.202 15.594
676 2 0 2.983 12.757 17.038
677 2 0 2.139 13.58 18.009
678 2 0 2.396 15.076 17.837
679 2 0 2.17 15.512 16.389
680 1 0 4.925 14.825 16.442
681 1 0 4.652 16.12 15.274
682 1 0 5.064 14.493 14.714
683 1 0 2.662 14.963 14.378
684 1 0 3.389 12.62 14.912
685 1 0 1.714 12.979 15.32
686 1 0 4.045 12.862 17.299
687 1 0 2.749 11.69 17.14
688 1 0 2.336 13.274 19.044
689 1 0 1.075 13.376 17.819
690 1 0 3.426 15.306 18.141
691 1 0 1.745 15.653 18.505
692 1 0 2.385 16.582 16.275
693 1 0 1.106 15.379 16.146
694 2 0 19.734 14.212 25.51
695 2 0 21.003 13.414 25.811
696 2 0 21.984 13.419 24.631
697 2 0 22.657 14.777 24.427
698 2 0 23.352 15.245 25.704
699 2 0 22.384 15.27 26.886
700 2 0 21.712 13.911 27.079
701 1 0 19.943 15.269 25.321
702 1 0 19.033 14.161 26.351
703 1 0 19.224 13.815 24.625
704 1 0 20.697 12.373 25.987
705 1 0 21.465 13.11 23.714
706 1 0 22.764 12.667 24.818
707 1 0 21.91 15.523 24.125
708 1 0 23.377 14.715 23.603
709 1 0 23.802 16.234 25.556
710 1 0 24.178 14.555 25.935
711 1 0 21.622 16.044 26.715
712 1 0 22.911 15.559 27.803
713 1 0 20.999 13.954 27.913
714 1 0 22.481 13.178 27.362
715 2 0 5.246 3.902 3.583
716 2 0 5.01 4.362 2.144
717 2 0 4.069 5.572 2.069
718 2 0 4.72 6.859 2.575
719 2 0 6.024 7.147 1.833
720 2 0 6.984 5.963 1.919
721 2 0 6.324 4.679 1.415
722 1 0 5.727 4.674 4.191
723 1 0 5.888 3.015 3.61
724 1 0 4.299 3.645 4.07
725 1 0 4.527 3.53 1.613
726 1 0 3.149 5.364 2.631
727 1 0 3.769 5.72 1.022
728 1 0 4.924 6.778 3.651
729 1 0 4.023 7.699 2.46
730 1 0 6.497 8.054 2.227
731 1 0 5.796 7.346 0.775
732 1 0 7.31 5.833 2.96
733 1 0 7.892 6.166 1.338
734 1 0 7.016 3.832 1.51
735 1 0 6.112 4.792 0.342
736 2 0 23.431 8.904 22.236
737 2 0 22.772 8.425 20.942
738 2 0 23.722 8.516 19.74
739 2 0 24.834 7.467 19.786
740 2 0 24.259 6.058 19.91
741 2 0 23.33 5.942 21.117
742 2 0 22.224 6.997 21.066
743 1 0 24.296 8.293 22.512
744 1 0 22.724 8.868 23.071
745 1 0 23.779 9.938 22.137
746 1 0 21.922 9.093 20.746
747 1 0 24.152 9.524 19.679
748 1 0 23.14 8.367 18.819
749 1 0 25.501 7.665 20.636
750 1 0 25.457 7.546 18.886
751 1 0 25.066 5.318 19.975
752 1 0 23.69 5.822 18.998
753 1 0 23.915 6.058 22.04
754 1 0 22.886 4.94 21.162
755 1 0 21.583 6.919 21.953
756 1 0 21.583 6.789 20.197
757 2 0 5.87 26.794 2.473
758 2 0 7.269 27.119 2.997
759 2 0 8.361 26.793 1.97
760 2 0 8.371 27.764 0.789
761 2 0 8.495 29.21 1.264
762 2 0 7.399 29.561 2.269
763 2 0 7.394 28.583 3.444
764 1 0 5.61 27.383 1.588
765 1 0 5.11 26.997 3.236
766 1 0 5.792 25.737 2.198
767 1 0 7.44 26.486 3.879
768 1 0 8.243 25.762 1.614
769 1 0 9.34 26.842 2.47
770 1 0 7.448 27.652 0.204
771 1 0 9.195 27.515 0.109
772 1 0 8.468 29.899 0.411
773 1 0 9.476 29.345 1.745
774 1 0 6.424 29.545 1.764
775 1 0 7.534 30.585 2.638
776 1 0 6.584 28.83 4.142
777 1 0 8.334 28.701 4.001
778 2 0 13.006 11.807 10.022
779 2 0 12.535 12.612 11.234
780 2 0 12.912 14.096 11.125
781 2 0 12.089 14.838 10.072
782 2 0 10.592 14.683 10.33
783 2 0 10.194 13.211 10.417
784 2 0 11.024 12.474 11.468
785 1 0 12.543 12.148 9.092
786 1 0 12.761 10.745 10.14
787 1 0 14.092 11.887 9.898
788 1 0 13.048 12.201 12.115
789 1 0 13.984 14.193 10.909
790 1 0 12.744 14.574 12.1
791 1 0 12.328 14.454 9.071
792 1 0 12.366 15.9 10.064
793 1 0 10.013 15.192 9.551
794 1 0 10.341 15.177 11.281
795 1 0 10.33 12.739 9.434
796 1 0 9.127 13.118 10.654
797 1 0 10.746 11.413 11.498
798 1 0 10.783 12.889 12.457
799 2 0 32.366 18.324 30.452
800 2 0 31.526 18.384 29.176
801 2 0 30.578 17.183 29.051
802 2 0 29.418 17.239 30.045
803 2 0 28.643 18.549 29.916
804 2 0 29.567 19.757 30.064
805 2 0 30.727 19.69 29.07
806 1 0 31.75 18.354 31.356
807 1 0 33.061 19.169 30.501
808 1 0 32.957 17.403 30.488
809 1 0 32.223 18.349 28.328
810 1 0 31.141 16.249 29.176
811 1 0 30.165 17.166 28.032
812 1 0 29.798 17.141 31.071
813 1 0 28.749 16.385 29.885
814 1 0 27.835 18.592 30.655
815 1 0 28.165 18.585 28.925
816 1 0 29.956 19.794 31.09
817 1 0 29.004 20.687 29.917
818 1 0 31.396 20.549 29.208
819 1 0 30.32 19.771 28.051
820 2 0 28.051 19.147 25.678
821 2 0 28.654 19.28 24.279
822 2 0 28.923 20.743 23.901
823 2 0 30.098 21.345 24.672
824 2 0 31.361 20.505 24.497
825 2 0 31.119 19.05 24.893
826 2 0 29.94 18.456 24.122
827 1 0 28.723 19.521 26.456
828 1 0 27.831 18.099 25.91
829 1 0 27.115 19.71 25.755
830 1 0 27.915 18.883 23.569
831 1 0 28.017 21.342 24.059
832 1 0 29.148 20.793 22.826
833 1 0 29.85 21.413 25.74
834 1 0 30.276 22.374 24.334
835 1 0 32.188 20.929 25.081
836 1 0 31.671 20.541 23.442
837 1 0 30.926 18.994 25.973
838 1 0 32.02 18.451 24.713
839 1 0 29.761 17.421 24.438
840 1 0 30.204 18.417 23.055
841 2 0 22.248 27.939 21.351
842 2 0 21.006 28.788 21.077
843 2 0 21.224 29.777 19.924
844 2 0 21.289 29.09 18.56
845 2 0 20.045 28.24 18.31
846 2 0 19.826 27.231 19.435
847 2 0 19.767 27.926 20.796
848 1 0 22.524 27.318 20.493
849 1 0 22.083 27.269 22.202
850 1 0 23.11 28.573 21.587
851 1 0 20.807 29.372 21.985
852 1 0 22.137 30.36 20.1
853 1 0 20.391 30.495 19.914
854 1 0 22.182 28.453 18.504
855 1 0 21.402 29.842 17.769
856 1 0 20.118 27.727 17.343
857 1 0 19.167 28.902 18.248
858 1 0 20.641 26.494 19.426
859 1 0 18.902 26.666 19.266
860 1 0 19.638 27.185 21.596
861 1 0 18.877 28.571 20.82
862 2 0 22.282 20.105 3.341
863 2 0 23.161 19.467 2.266
864 2 0 24.333 20.374 1.864
865 2 0 25.404 20.473 2.951
866 2 0 25.91 19.09 3.355
867 2 0 24.759 18.182 3.783
868 2 0 23.691 18.091 2.693
869 1 0 22.829 20.289 4.27
870 1 0 21.431 19.459 3.584
871 1 0 21.883 21.067 3
872 1 0 22.532 19.321 1.377
873 1 0 23.96 21.373 1.605
874 1 0 24.796 19.967 0.953
875 1 0 24.995 20.984 3.833
876 1 0 26.235 21.095 2.597
877 1 0 26.653 19.173 4.158
878 1 0 26.425 18.633 2.496
879 1 0 24.316 18.569 4.711
880 1 0 25.134 17.179 4.02
881 1 0 22.859 17.458 3.027
882 1 0 24.129 17.595 1.815
883 2 0 14.989 9.164 7.735
884 2 0 15.561 7.786 8.069
885 2 0 15.51 7.488 9.574
886 2 0 14.09 7.232 10.079
887 2 0 13.416 6.113 9.288
888 2 0 13.434 6.405 7.789
889 2 0 14.857 6.664 7.293
890 1 0 13.933 9.253 8.006
891 1 0 15.071 9.371 6.662
892 1 0 15.532 9.952 8.27
893 1 0 16.616 7.791 7.765
894 1 0 15.97 8.313 10.133
895 1 0 16.119 6.595 9.776
896 1 0 13.492 8.15 9.994
897 1 0 14.114 6.983 11.147
898 1 0 12.388 5.962 9.637
899 1 0 13.953 5.171 9.475
900 1 0 12.8 7.278 7.58
901 1 0 12.993 5.569 7.233
902 1 0 14.849 6.9 6.221
903 1 0 15.44 5.739 7.406
904 2 0 26.35 26.259 28.737
905 2 0 27.077 26.176 27.394
906 2 0 26.694 27.329 26.456
907 2 0 27.272 28.672 26.903
908 2 0 28.788 28.594 27.065
909 2 0 29.188 27.468 28.016
910 2 0 28.602 26.129 27.565
911 1 0 26.601 27.169 29.289
912 1 0 26.608 25.406 29.374
913 1 0 25.264 26.251 28.593
914 1 0 26.766 25.238 26.915
915 1 0 25.601 27.394 26.372
916 1 0 27.073 27.103 25.449
917 1 0 26.819 28.976 27.856
918 1 0 27.006 29.451 26.178
919 1 0 29.187 29.553 27.417
920 1 0 29.243 28.407 26.08
921 1 0 28.839 27.707 29.03
922 1 0 30.28 27.393 28.08
923 1 0 28.874 25.337 28.273
924 1 0 29.056 25.857 26.601
925 2 0 18.807 18.712 17.75
926 2 0 19.429 17.888 18.877
927 2 0 20.924 17.628 18.646
928 2 0 21.778 18.882 18.834
929 2 0 21.548 19.505 20.21
930 2 0 20.067 19.795 20.447
931 2 0 19.22 18.537 20.252
932 1 0 19.257 19.706 17.665
933 1 0 17.733 18.852 17.915
934 1 0 18.934 18.211 16.784
935 1 0 18.919 16.915 18.886
936 1 0 21.08 17.208 17.644
937 1 0 21.263 16.864 19.361
938 1 0 21.538 19.619 18.056
939 1 0 22.838 18.633 18.702
940 1 0 22.141 20.421 20.32
941 1 0 21.903 18.806 20.982
942 1 0 19.735 20.581 19.755
943 1 0 19.915 20.193 21.457
944 1 0 18.157 18.768 20.398
945 1 0 19.492 17.809 21.03
946 2 0 27.501 20.085 12.923
947 2 0 26.734 20.526 14.17
948 2 0 27.513 21.564 14.991
949 2 0 27.572 22.932 14.31
950 2 0 26.172 23.447 13.983
951 2 0 25.391 22.437 13.144
952 2 0 25.34 21.071 13.829
953 1 0 27.683 20.913 12.232
954 1 0 26.945 19.316 12.375
955 1 0 28.476 19.664 13.193
956 1 0 26.6 19.636 14.8
957 1 0 28.526 21.196 15.194
958 1 0 27.021 21.681 15.967
959 1 0 28.16 22.865 13.385
960 1 0 28.099 23.646 14.955
961 1 0 26.229 24.413 13.466
962 1 0 25.628 23.626 14.923
963 1 0 25.862 22.343 12.156
964 1 0 24.372 22.8 12.963
965 1 0 24.801 20.35 13.202
966 1 0 24.764 21.169 14.761
967 2 0 32.984 6.152 17.803
968 2 0 33.251 6.769 19.176
969 2 0 33.594 8.263 19.082
970 2 0 32.384 9.125 18.719
971 2 0 31.232 8.899 19.696
972 2 0 30.86 7.42 19.783
973 2 0 32.076 6.565 20.141
974 1 0 32.124 6.609 17.303
975 1 0 32.78 5.079 17.89
976 1 0 33.85 6.276 17.143
977 1 0 34.124 6.253 19.598
978 1 0 34.402 8.415 18.355
979 1 0 33.981 8.596 20.056
980 1 0 32.049 8.889 17.7
981 1 0 32.672 10.183 18.708
982 1 0 30.36 9.497 19.406
983 1 0 31.536 9.25 20.694
984 1 0 30.443 7.092 18.821
985 1 0 30.068 7.27 20.525
986 1 0 31.799 5.503 20.172
987 1 0 32.404 6.832 21.156
988 2 0 5.933 12.268 10.056
989 2 0 6.536 11.901 8.699
990 2 0 5.693 10.856 7.955
991 2 0 4.375 11.426 7.429
992 2 0 4.616 12.649 6.546
993 2 0 5.431 13.711 7.28
994 2 0 6.745 13.133 7.807
995 1 0 4.941 12.72 9.96
996 1 0 6.57 12.985 10.585
997 1 0 5.829 11.381 10.69
998 1 0 7.522 11.458 8.893
999 1 0 5.502 9.996 8.609
1000 1 0 6.275 10.478 7.102
1001 1 0 3.726 11.705 8.27
1002 1 0 3.834 10.653 6.87
1003 1 0 3.662 13.067 6.202
1004 1 0 5.165 12.336 5.645
1005 1 0 4.839 14.114 8.113
1006 1 0 5.638 14.559 6.616
1007 1 0 7.306 13.9 8.356
1008 1 0 7.368 12.843 6.949
1009 2 0 22.394 7.909 6.459
1010 2 0 20.967 7.456 6.149
1011 2 0 20.71 6.009 6.592
1012 2 0 20.63 5.861 8.111
1013 2 0 19.578 6.797 8.703
1014 2 0 19.833 8.246 8.293
1015 2 0 19.916 8.385 6.773
1016 1 0 22.609 7.899 7.532
1017 1 0 22.566 8.93 6.1
1018 1 0 23.126 7.256 5.972
1019 1 0 20.843 7.498 5.058
1020 1 0 21.489 5.351 6.186
1021 1 0 19.758 5.672 6.157
1022 1 0 21.608 6.082 8.561
1023 1 0 20.403 4.82 8.372
1024 1 0 19.554 6.706 9.795
1025 1 0 18.585 6.493 8.339
1026 1 0 20.767 8.596 8.753
1027 1 0 19.04 8.897 8.683
1028 1 0 20.127 9.426 6.497
1029 1 0 18.933 8.141 6.346
1030 2 0 26.515 23.138 8.976
1031 2 0 26.235 22.227 7.781
1032 2 0 27.342 21.183 7.578
1033 2 0 27.333 20.095 8.652
1034 2 0 25.966 19.418 8.741
1035 2 0 24.855 20.44 8.969
1036 2 0 24.873 21.527 7.894